LAMMPS data file using Dreiding for polymer_relax

3010  atoms
3005  bonds
5600  angles
7555  dihedrals
3400  impropers

5  atom types
6  bond types
3  angle types
15  dihedral types
2  improper types

0.0 40.5135 xlo xhi
0.0 40.5135 ylo yhi
0.0 40.5135 zlo zhi

Masses

  1      1.007900     # H_
  2     12.011000     # C_3
  3     12.011000     # C_2
  5     15.999400     # O_3
  4     15.999400     # O_2

Atoms

     1   1   1    0.02469      3.10716000     38.33588500      2.48717200
     2   1   2   -0.05171      2.68062500     37.42130700      2.89913800
     3   1   2    0.05000      1.47082400     36.94040100      2.09538900
     4   1   2   -0.02515      0.87211000     35.65663600      2.67365400
     5   1   1    0.02469      2.34367000     37.55485800      3.92710900
     6   1   1    0.02469      3.40011600     36.60254300      2.90674700
     7   1   3    0.25851      1.83183300     36.64368900      0.63849700
     8   1   2   -0.05171      0.34893200     37.98042400      2.07074900
     9   1   1    0.02469     40.50242900     38.21646700      3.07212900
    10   1   1    0.02469     40.00057600     37.63781800      1.49814400
    11   1   1    0.02469      0.67262500     38.91966200      1.62224600
    12   1   4   -0.26686      1.27552900     37.25805800     40.24319300
    13   1   5   -0.31157      2.76783100     35.70064300      0.34837000
    14   1   2    0.04217      2.91937500     35.61634300     39.44245200
    15   1   1    0.05533      3.66139700     34.87161900     39.15454400
    16   1   1    0.05533      3.23876400     36.56404100     39.00891000
    17   1   1    0.05533      1.98778200     35.34115400     38.94797800
    18   1   2    0.05393      1.92485300     34.80157000      3.38181700
    19   1   2   -0.02483      1.32614000     33.51780500      3.96008100
    20   1   1    0.02978      0.42465100     35.03085100      1.90146600
    21   1   1    0.02978      0.09022800     35.86376400      3.40430900
    22   1   3    0.25884      2.58104700     35.54755000      4.54535600
    23   1   2   -0.05139      3.05046700     34.37841500      2.43586100
    24   1   1    0.02471      2.67906100     33.79058800      1.59644600
    25   1   1    0.02471      3.80046100     33.76925100      2.94036900
    26   1   1    0.02471      3.57308000     35.23661600      2.01340600
    27   1   4   -0.26685      3.79516300     35.74456800      4.54302100
    28   1   5   -0.31156      1.82189200     35.99280300      5.58219500
    29   1   2    0.04217      2.66736400     36.65087400      6.52930600
    30   1   1    0.05533      2.10639400     37.02857600      7.38414700
    31   1   1    0.05533      3.18593100     37.50334600      6.09058000
    32   1   1    0.05533      3.43401500     35.98441600      6.92450200
    33   1   2    0.05394      0.16249700     32.99650800      3.11445400
    34   1   2   -0.02483     40.07731100     31.71274300      3.69271800
    35   1   1    0.02979      0.94164400     33.66509100      4.96932300
    36   1   1    0.02979      2.06028700     32.71408100      4.01625400
    37   1   3    0.25884      0.59309500     32.67801600      1.68125800
    38   1   2   -0.05139     39.53641800     34.01291900      3.01905200
    39   1   1    0.02471     39.12806600     34.26165600      3.99858200
    40   1   1    0.02471     38.70741800     33.64153700      2.41661200
    41   1   1    0.02471     39.86136600     34.94933400      2.56558100
    42   1   4   -0.26685      0.06565400     33.26266300      0.73632800
    43   1   5   -0.31156      1.55903500     31.74847300      1.45210800
    44   1   2    0.04217      1.77465300     31.63881900      0.04271700
    45   1   1    0.05533      2.54291000     30.90363700     40.31668500
    46   1   1    0.05533      2.09447700     32.58390400     40.11735200
    47   1   1    0.05533      0.87127400     31.33498300     40.02738700
    48   1   2    0.05394     38.96300300     32.00313000      4.70013600
    49   1   2   -0.02483     38.36428900     30.71936600      5.27840100
    50   1   1    0.02979      0.31026900     31.11201100      4.21231600
    51   1   1    0.02979     39.64533200     31.07877600      2.91839200
    52   1   3    0.25884     37.80913100     32.78485900      4.06896200
    53   1   2   -0.05139     39.46330700     32.83151000      5.88520300
    54   1   1    0.02471     40.25826500     32.32393700      6.43156400
    55   1   1    0.02471     38.66945300     33.03838800      6.60290600
    56   1   1    0.02471     39.86276000     33.79543200      5.56993800
    57   1   4   -0.26685     37.50186500     33.89116000      4.51008000
    58   1   5   -0.31156     37.12320900     32.25650100      3.02017800
    59   1   2    0.04217     36.10466700     33.17660500      2.61907700
    60   1   1    0.05533     35.52260800     32.80017400      1.77788400
    61   1   1    0.05533     36.51962100     34.13640300      2.31134100
    62   1   1    0.05533     35.39927300     33.38141600      3.42441500
    63   1   2    0.05394     38.47749000     29.54480100      4.30449900
    64   1   2   -0.02483     37.87877600     28.26103700      4.88276300
    65   1   1    0.02979     37.30623300     30.83258000      5.51462300
    66   1   1    0.02979     38.86235000     30.41511200      6.19897900
    67   1   3    0.25884     39.93259200     29.23369200      3.94842700
    68   1   2   -0.05139     37.74831900     29.81967800      2.98781600
    69   1   1    0.02471     36.68450900     30.00163700      3.14046100
    70   1   1    0.02471     37.82896500     28.98289700      2.29399100
    71   1   1    0.02471     38.14768600     30.69457400      2.47482300
    72   1   4   -0.26685     40.30635500     29.29659400      2.77827900
    73   1   5   -0.31156      0.29922300     28.88759900      4.92574000
    74   1   2    0.04217      1.58015200     28.65031100      4.33598100
    75   1   1    0.05533      2.32593800     28.36829500      5.07919700
    76   1   1    0.05533      1.96342200     29.53260200      3.82337400
    77   1   1    0.05533      1.54836200     27.84677000      3.60017400
    78   1   2    0.05394     37.97071400     28.22279600      6.40951900
    79   1   2   -0.02483     37.37200000     26.93903100      6.98778400
    80   1   1    0.02979     38.38780400     27.37070300      4.51358000
    81   1   1    0.02979     36.82490200     28.15079300      4.62723300
    82   1   3    0.25884     37.22483200     29.39068500      7.05805300
    83   1   2   -0.05139     39.41863000     28.29569600      6.89852100
    84   1   1    0.02471     40.01792600     27.46519900      6.52540100
    85   1   1    0.02471     39.48412800     28.26845200      7.98621000
    86   1   1    0.02471     39.91308100     29.21180200      6.57546200
    87   1   4   -0.26685     37.83284000     30.19087100      7.76722700
    88   1   5   -0.31156     35.88955700     29.54405000      6.85039900
    89   1   2    0.04217     35.43777600     30.70027200      7.56028900
    90   1   1    0.05533     34.36928300     30.86958800      7.42703900
    91   1   1    0.05533     35.94461700     31.60665600      7.22911100
    92   1   1    0.05533     35.61242300     30.61501100      8.63282300
    93   1   2    0.05394     36.27388400     26.36407000      6.09086600
    94   1   2   -0.02483     35.67517000     25.08030500      6.66913000
    95   1   1    0.02979     36.92509700     27.10253500      7.96841900
    96   1   1    0.02979     38.12187100     26.15731900      7.10910500
    97   1   3    0.25884     36.79613700     26.01949000      4.69465100
    98   1   2   -0.05139     35.11626100     27.34626200      5.90084300
    99   1   1    0.02471     34.64470800     27.60970800      6.84759200
   100   1   1    0.02471     34.33394300     26.93664900      5.26186200
   101   1   1    0.02471     35.44330500     28.27880000      5.44093600
   102   1   4   -0.26685     36.31048500     26.56432500      3.70460100
   103   1   5   -0.31156     37.79734200     25.11077800      4.54825900
   104   1   2    0.04217     38.09831800     24.96967700      3.15743100
   105   1   1    0.05533     38.89789300     24.24954100      2.98369700
   106   1   1    0.05533     38.41916800     25.91112700      2.71153000
   107   1   1    0.05533     37.23571500     24.62749400      2.58565600
   108   1   2    0.05394     34.46590900     25.36365200      7.56260700
   109   1   2   -0.02483     33.86719500     24.07988700      8.14087100
   110   1   1    0.02979     36.39485200     24.53173200      7.27677000
   111   1   1    0.02979     35.33764000     24.39919600      5.88793600
   112   1   3    0.25884     33.34378200     26.07173100      6.80079700
   113   1   2   -0.05139     34.82775700     26.25776900      8.75026100
   114   1   1    0.02471     35.58980500     25.80525300      9.38477800
   115   1   1    0.02471     33.96625700     26.45963000      9.38679000
   116   1   1    0.02471     35.21691600     27.22427900      8.43008400
   117   1   4   -0.26685     32.95717900     27.18082400      7.16597000
   118   1   5   -0.31156     32.77379900     25.47482100      5.71986300
   119   1   2    0.04217     31.76079100     26.33565200      5.19290400
   120   1   1    0.05533     31.27008500     25.90284200      4.32113400
   121   1   1    0.05533     32.16486800     27.29898000      4.88174400
   122   1   1    0.05533     30.97966100     26.54253700      5.92443200
   123   1   2    0.05394     34.48236500     23.71971100      9.49465800
   124   1   2   -0.02483     33.88365100     22.43594600     10.07292200
   125   1   1    0.02979     34.02522900     23.22398000      7.48471000
   126   1   1    0.02979     32.79155300     24.16457000      8.29554600
   127   1   3    0.25884     34.26155600     24.81934600     10.53530500
   128   1   2   -0.05139     35.99323000     23.49906800      9.39715900
   129   1   1    0.02471     36.24430800     22.69005000      8.71119200
   130   1   1    0.02471     36.43148800     23.24247200     10.36162100
   131   1   1    0.02471     36.51353500     24.38802800      9.04060200
   132   1   4   -0.26685     35.22685400     25.37061700     11.06180400
   133   1   5   -0.31156     32.99796100     25.18726400     10.87817900
   134   1   2    0.04217     33.06537400     26.22413200     11.86065600
   135   1   1    0.05533     32.07512200     26.55703600     12.17158300
   136   1   1    0.05533     33.59220900     27.10367300     11.49058600
   137   1   1    0.05533     33.58653900     25.89988500     12.76140600
   138   1   2    0.05394     32.44880700     22.20630100      9.59398100
   139   1   2   -0.02483     31.85009300     20.92253700     10.17224500
   140   1   1    0.02979     33.85359500     22.45405300     11.16235700
   141   1   1    0.02979     34.45656900     21.55362200      9.78766900
   142   1   3    0.25884     32.36509900     22.08719000      8.07092300
   143   1   2   -0.05139     31.51872200     23.35109800     10.00053100
   144   1   1    0.02471     31.47405000     23.47631900     11.08239200
   145   1   1    0.02471     30.49651300     23.18749500      9.65932400
   146   1   1    0.02471     31.84095000     24.30603900      9.58537200
   147   1   4   -0.26685     31.68010500     22.88164100      7.42863700
   148   1   5   -0.31156     33.04808400     21.10289600      7.42726300
   149   1   2    0.04217     32.80444000     21.20938000      6.02220200
   150   1   1    0.05533     33.33093800     20.44028800      5.45705000
   151   1   1    0.05533     33.12772000     22.17093400      5.62344700
   152   1   1    0.05533     31.74595300     21.10813500      5.78250600
   153   1   2    0.05394     32.91851600     19.85917200     10.43421200
   154   1   2   -0.02483     32.31980300     18.57540700     11.01247600
   155   1   1    0.02979     31.11749100     20.47501900      9.50058900
   156   1   1    0.02979     31.34218300     21.09979400     11.12024700
   157   1   3    0.25884     33.97592800     20.34202800     11.42901400
   158   1   2   -0.05139     33.66053400     19.46505000      9.15555000
   159   1   1    0.02471     32.98706600     19.05677100      8.40199200
   160   1   1    0.02471     34.42169900     18.70749000      9.34218000
   161   1   1    0.02471     34.16692000     20.31534400      8.69874100
   162   1   4   -0.26685     35.15675600     20.40298200     11.09014900
   163   1   5   -0.31156     33.61021800     20.70383600     12.68796300
   164   1   2    0.04217     34.77395800     21.11273800     13.41143300
   165   1   1    0.05533     34.53563500     21.41434600     14.43140100
   166   1   1    0.05533     35.27112500     21.96033800     12.93973500
   167   1   1    0.05533     35.51199300     20.31380400     13.48290000
   168   1   2    0.05394     31.98133200     17.55838700      9.92068500
   169   1   2   -0.02483     31.38261800     16.27462300     10.49894900
   170   1   1    0.02979     31.39834400     18.76628700     11.56254900
   171   1   1    0.02979     33.00304500     18.08124900     11.70319200
   172   1   3    0.25884     33.21673400     17.14801300      9.11677200
   173   1   2   -0.05139     30.96426400     18.10958000      8.91935500
   174   1   1    0.02471     30.02435500     18.38139300      9.39975900
   175   1   1    0.02471     30.72313200     17.38503700      8.14154300
   176   1   1    0.02471     31.33101200     19.00361200      8.41507100
   177   1   4   -0.26685     33.25541700     17.34786800      7.90373400
   178   1   5   -0.31156     34.27209800     16.56225800      9.74342900
   179   1   2    0.04217     35.28824800     16.27919900      8.77791500
   180   1   1    0.05533     36.16056100     15.80689500      9.22968700
   181   1   1    0.05533     35.64093100     17.18219700      8.27960900
   182   1   1    0.05533     34.93370400     15.60603300      7.99737400
   183   1   2    0.05394     29.85467900     16.32982900     10.55599800
   184   1   2   -0.02483     29.25596500     15.04606400     11.13426300
   185   1   1    0.02979     31.72961600     16.08356700     11.51442400
   186   1   1    0.02979     31.64480400     15.39852900      9.90580600
   187   1   3    0.25884     29.23594800     16.52194800      9.16993900
   188   1   2   -0.05139     29.35499700     17.48351500     11.42790700
   189   1   1    0.02471     29.70636300     17.39996500     12.45633300
   190   1   1    0.02471     28.26646500     17.52284500     11.46855000
   191   1   1    0.02471     29.69210200     18.45141200     11.05691300
   192   1   4   -0.26685     28.53778400     17.50801300      8.93940600
   193   1   5   -0.31156     29.45791700     15.60243900      8.19278400
   194   1   2    0.04217     28.77512000     16.01150400      7.00477900
   195   1   1    0.05533     28.92076400     15.30609400      6.18668100
   196   1   1    0.05533     29.12004300     16.98249400      6.64938200
   197   1   1    0.05533     27.69965700     16.09633800      7.16060800
   198   1   2    0.05394     30.13856500     13.82711500     10.85843300
   199   1   2   -0.02483     29.53985100     12.54335000     11.43669700
   200   1   1    0.02979     28.27487000     14.82713900     10.71280900
   201   1   1    0.02979     29.12893300     15.10556900     12.21519800
   202   1   3    0.25884     31.53327400     13.97947000     11.46873800
   203   1   2   -0.05139     30.33445100     13.58864600      9.35988000
   204   1   1    0.02471     29.38840200     13.41582500      8.84682600
   205   1   1    0.02471     30.96323100     12.72024500      9.16337300
   206   1   1    0.02471     30.80855400     14.43894300      8.86965300
   207   1   4   -0.26685     32.52743400     13.95408500     10.74492700
   208   1   5   -0.31156     31.67378300     14.14296400     12.81154400
   209   1   2    0.04217     33.06443800     14.26055500     13.12323500
   210   1   1    0.05533     33.23354100     14.39401100     14.19173500
   211   1   1    0.05533     33.52461500     15.11216100     12.62213000
   212   1   1    0.05533     33.62641800     13.37622500     12.82283800
   213   1   2    0.05394     28.70305100     12.81442800     12.68856900
   214   1   2   -0.02483     28.10433700     11.53066300     13.26683300
   215   1   1    0.02979     30.30953000     11.82576800     11.72089600
   216   1   1    0.02979     28.88697400     12.03999200     10.72361700
   217   1   3    0.25884     27.53380300     13.75898100     12.40295100
   218   1   2   -0.05139     29.53060200     13.45828100     13.80280100
   219   1   1    0.02471     30.36318800     12.82571800     14.11063900
   220   1   1    0.02471     28.93445100     13.65140200     14.69465800
   221   1   1    0.02471     29.95672900     14.41321200     13.49519400
   222   1   4   -0.26685     27.44957300     14.83130100     12.99955400
   223   1   5   -0.31156     26.58760400     13.41292900     11.48941100
   224   1   2    0.04217     25.61367000     14.45695100     11.40959600
   225   1   1    0.05533     24.82893300     14.22902700     10.68825000
   226   1   1    0.05533     26.05599700     15.40561300     11.10548000
   227   1   1    0.05533     25.12178900     14.63054000     12.36668500
   228   1   2    0.05394     27.87964400     10.46729800     12.18995400
   229   1   2   -0.02483     27.28093100      9.18353300     12.76821900
   230   1   1    0.02979     27.13926400     11.70792000     13.74150400
   231   1   1    0.02979     28.75013800     11.08314600     14.02232600
   232   1   3    0.25884     29.18331200     10.07317600     11.49280400
   233   1   2   -0.05139     26.92217600     10.95015400     11.09862300
   234   1   1    0.02471     25.94127900     11.20532900     11.49965500
   235   1   1    0.02471     26.76210100     10.19259300     10.33143400
   236   1   1    0.02471     27.29657100     11.83912800     10.59102600
   237   1   4   -0.26685     29.30492800     10.23422100     10.27947200
   238   1   5   -0.31156     30.20765900      9.54478000     12.21468500
   239   1   2    0.04217     31.30065500      9.26501800     11.33605400
   240   1   1    0.05533     32.15183300      8.83793300     11.86633100
   241   1   1    0.05533     31.66030500     10.16266400     10.83307900
   242   1   1    0.05533     31.02610600      8.55480900     10.55610100
   243   1   2    0.05394     27.70973800      8.95388800     14.21883500
   244   1   2   -0.02483     27.11102400      7.67012400     14.79709900
   245   1   1    0.02979     27.58591400      8.30120900     12.20555600
   246   1   1    0.02979     26.19110900      9.20164000     12.76041100
   247   1   3    0.25884     27.27112300     10.09868500     15.13423500
   248   1   2   -0.05139     29.22896900      8.83477700     14.35540200
   249   1   1    0.02471     29.62736500      8.00382100     13.77325800
   250   1   1    0.02471     29.53445900      8.67117400     15.38884700
   251   1   1    0.02471     29.74142300      9.73397200     14.01344000
   252   1   4   -0.26685     28.11267600     10.74888500     15.75223900
   253   1   5   -0.31156     25.95074600     10.39736200     15.26460300
   254   1   2    0.04217     25.80905800     11.49635600     16.16850400
   255   1   1    0.05533     24.76535700     11.77746200     16.30910000
   256   1   1    0.05533     26.33052800     12.38578300     15.81482700
   257   1   1    0.05533     26.20991600     11.26723900     17.15588400
   258   1   2    0.05394     25.76752600      7.32323200     14.15244400
   259   1   2   -0.02483     25.16881200      6.03946700     14.73070800
   260   1   1    0.02979     26.93530200      7.74870300     15.86996800
   261   1   1    0.02979     27.76453000      6.81085600     14.64647000
   262   1   3    0.25884     25.89393900      7.11197900     12.64238000
   263   1   2   -0.05139     24.72997800      8.42840700     14.35976700
   264   1   1    0.02471     24.53490100      8.61235200     15.41627500
   265   1   1    0.02471     23.77284500      8.18127500     13.90050300
   266   1   1    0.02471     25.05149500      9.37642900     13.92851200
   267   1   4   -0.26685     25.25780200      7.82345600     11.86647400
   268   1   5   -0.31156     26.70967700      6.13752600     12.15801400
   269   1   2    0.04217     26.64969300      6.14770600     10.72930900
   270   1   1    0.05533     27.28827500      5.38228400     10.28835300
   271   1   1    0.05533     26.96970400      7.10332300     10.31399100
   272   1   1    0.05533     25.63971700      5.96623100     10.36172900
   273   1   2    0.05394     26.24980600      5.06248000     15.19745100
   274   1   2   -0.02483     25.65109200      3.77871500     15.77571500
   275   1   1    0.02979     24.55788200      5.50881100     14.00045600
   276   1   1    0.02979     24.53027500      6.23832700     15.59142000
   277   1   3    0.25884     27.13720800      5.66738300     16.28718000
   278   1   2   -0.05139     27.17595900      4.64338400     14.05399200
   279   1   1    0.02471     26.63228400      4.15086500     13.24780200
   280   1   1    0.02471     27.94607900      3.94736000     14.38650700
   281   1   1    0.02471     27.69102100      5.49638600     13.61217800
   282   1   4   -0.26685     28.34746300      5.78328400     16.10076400
   283   1   5   -0.31156     26.58784300      6.07692300     17.46194500
   284   1   2    0.04217     27.62064700      6.59930800     18.30178400
   285   1   1    0.05533     27.23246000      6.94321800     19.26050000
   286   1   1    0.05533     28.12871600      7.44819100     17.84422100
   287   1   1    0.05533     28.38548300      5.85400000     18.52005300
   288   1   2    0.05394     24.26381600      4.01337600     16.37679800
   289   1   2   -0.02483     23.66510200      2.72961100     16.95506200
   290   1   1    0.02979     26.27146500      3.35958800     16.56790800
   291   1   1    0.02979     25.53969100      3.00284500     15.01827500
   292   1   3    0.25884     23.27006500      4.53674200     15.33783300
   293   1   2   -0.05139     24.29723300      5.03749200     17.51300600
   294   1   1    0.02471     24.94548700      4.72015600     18.32980800
   295   1   1    0.02471     23.30891300      5.20466800     17.94122900
   296   1   1    0.02471     24.66405500      6.00758900     17.17766500
   297   1   4   -0.26685     22.72686500      5.62809500     15.50148800
   298   1   5   -0.31156     22.98734200      3.79525700     14.23335700
   299   1   2    0.04217     22.03878400      4.50109400     13.42903600
   300   1   1    0.05533     21.77656300      3.94811900     12.52706100
   301   1   1    0.05533     22.41853800      5.47031500     13.10577500
   302   1   1    0.05533     21.10870000      4.68948100     13.96527600
   303   1   2    0.05394     24.15148400      1.48445100     16.21081200
   304   1   2   -0.02483     23.55277000      0.20068600     16.78907600
   305   1   1    0.02979     22.57654000      2.72550700     16.89924800
   306   1   1    0.02979     23.92780900      2.59297000     18.00406800
   307   1   3    0.25884     25.67251200      1.33364600     16.27887900
   308   1   2   -0.05139     23.77577600      1.51968400     14.72807700
   309   1   1    0.02471     22.69704900      1.57375500     14.58136200
   310   1   1    0.02471     24.12228300      0.63260900     14.19786000
   311   1   1    0.02471     24.20719200      2.38089700     14.21788800
   312   1   4   -0.26685     26.33631800      1.32196100     15.24344500
   313   1   5   -0.31156     26.29057200      1.21251900     17.48425500
   314   1   2    0.04217     27.69949200      1.08669400     17.27446700
   315   1   1    0.05533     28.24468800      0.98618800     18.21295500
   316   1   1    0.05533     28.11463100      1.95309700     16.75958200
   317   1   1    0.05533     27.94606500      0.21301500     16.67115500
   318   1   2    0.05394     22.17563600     40.40691600     16.19749400
   319   1   2   -0.02483     21.57692200     39.12315200     16.77575800
   320   1   1    0.02979     23.42573800      0.26019100     17.87001200
   321   1   1    0.02979     24.18155000     39.84581200     16.59257000
   322   1   3    0.25884     22.23162300     40.22488800     14.67939300
   323   1   2   -0.05139     21.17071200      1.01383500     16.47250000
   324   1   1    0.02471     21.02576300      1.17938000     17.54006000
   325   1   1    0.02471     20.18961600      0.79491000     16.05104600
   326   1   1    0.02471     21.49218400      1.96427700     16.04657100
   327   1   4   -0.26685     21.57670200      0.45107200     13.94672400
   328   1   5   -0.31156     23.00552900     39.24519100     14.14007600
   329   1   2    0.04217     22.88337100     39.28640700     12.71589900
   330   1   1    0.05533     23.48645200     38.51817400     12.23194600
   331   1   1    0.05533     23.20418900     40.24413700     12.30610700
   332   1   1    0.05533     21.85482800     39.13221700     12.38966900
   333   1   2    0.05394     21.73471400     39.05121800     18.29589900
   334   1   2   -0.02483     21.13600000     37.76745300     18.87416300
   335   1   1    0.02979     22.05121000     38.23106100     16.36670600
   336   1   1    0.02979     20.51087100     39.03866900     16.56481100
   337   1   3    0.25884     21.04167300     40.21948800     18.99998600
   338   1   2   -0.05139     23.20380000     39.08587200     18.72191100
   339   1   1    0.02471     23.76929000     38.25193100     18.30614300
   340   1   1    0.02471     23.31621400     39.03462500     19.80488700
   341   1   1    0.02471     23.70208900     39.99880500     18.39578200
   342   1   4   -0.26685     21.69616100      0.47923600     19.69754500
   343   1   5   -0.31156     19.70197400     40.40294500     18.85455700
   344   1   2    0.04217     19.30513700      1.03905600     19.60672100
   345   1   1    0.05533     18.23548500      1.23174500     19.52415900
   346   1   1    0.05533     19.81525100      1.94220200     19.27174100
   347   1   1    0.05533     19.52473800      0.92802300     20.66858100
   348   1   2    0.05394     22.16650100     36.63929000     18.95301200
   349   1   2   -0.02483     21.56778700     35.35552500     19.53127700
   350   1   1    0.02979     20.30700000     37.39607100     18.27172300
   351   1   1    0.02979     20.75150500     37.91473900     19.88340600
   352   1   3    0.25884     23.35687500     37.01126600     19.83932100
   353   1   2   -0.05139     22.73293700     36.28322700     17.57705100
   354   1   1    0.02471     21.95532700     35.95276200     16.88841800
   355   1   1    0.02471     23.46708500     35.47950300     17.63322500
   356   1   1    0.02471     23.22990600     37.13234200     17.10787500
   357   1   4   -0.26685     24.49228900     37.03320600     19.36682400
   358   1   5   -0.31156     23.15956800     37.31765100     21.14958800
   359   1   2    0.04217     24.41997300     37.62624700     21.75046000
   360   1   1    0.05533     24.31808200     37.88006400     22.80558700
   361   1   1    0.05533     24.90593200     38.47398800     21.26746900
   362   1   1    0.05533     25.11559200     36.78903800     21.69304000
   363   1   2    0.05394     20.42069000     35.64450300     20.50161700
   364   1   2   -0.02483     19.82197600     34.36073800     21.07988200
   365   1   1    0.02979     22.30642800     34.77189400     20.08071500
   366   1   1    0.02979     21.16701000     34.70546300     18.75352500
   367   1   3    0.25884     19.27579800     36.40214200     19.82626100
   368   1   2   -0.05139     20.87516600     36.49538800     21.68919800
   369   1   1    0.02471     21.66025900     36.00590600     22.26551000
   370   1   1    0.02471     20.05795300     36.70126100     22.38048600
   371   1   1    0.02471     21.27115200     37.46024000     21.37240800
   372   1   4   -0.26685     18.94136300     37.51006800     20.24285700
   373   1   5   -0.31156     18.62789900     35.85057400     18.76531800
   374   1   2    0.04217     17.60971200     36.75147400     18.32194900
   375   1   1    0.05533     17.05755100     36.35599100     17.46941700
   376   1   1    0.05533     18.02102300     37.71251200     18.01319400
   377   1   1    0.05533     16.87836600     36.95764500     19.10343800
   378   1   2    0.05394     19.93517700     33.18617400     20.10598000
   379   1   2   -0.02483     19.33646300     31.90240900     20.68424400
   380   1   1    0.02979     18.76392100     34.47395200     21.31610400
   381   1   1    0.02979     20.32003700     34.05648500     22.00046000
   382   1   3    0.25884     21.39028000     32.87506400     19.74990800
   383   1   2   -0.05139     19.20600600     33.46105000     18.78929800
   384   1   1    0.02471     18.14219600     33.64300900     18.94194200
   385   1   1    0.02471     19.28665200     32.62426900     18.09547200
   386   1   1    0.02471     19.60537300     34.33594600     18.27630400
   387   1   4   -0.26685     21.76404200     32.93796700     18.57976000
   388   1   5   -0.31156     22.27043800     32.52897100     20.72722100
   389   1   2    0.04217     23.55136700     32.29168300     20.13746200
   390   1   1    0.05533     24.29715300     32.00966700     20.88067800
   391   1   1    0.05533     23.93463700     33.17397500     19.62485500
   392   1   1    0.05533     23.51957800     31.48814300     19.40165500
   393   1   2    0.05394     19.42840100     31.86416800     22.21100000
   394   1   2   -0.02483     18.82968700     30.58040400     22.78926500
   395   1   1    0.02979     19.84549100     31.01207500     20.31506100
   396   1   1    0.02979     18.28258900     31.79216600     20.42871400
   397   1   3    0.25884     18.68251900     33.03205800     22.85953400
   398   1   2   -0.05139     20.87631800     31.93706800     22.70000200
   399   1   1    0.02471     21.47561400     31.10657100     22.32688200